LAMMPS (8 Feb 2019)
OMP_NUM_THREADS environment is not set. Defaulting to 1 thread. (src/comm.cpp:87)
  using 1 OpenMP thread(s) per MPI task
# Test case / example for the electronic stopping fix elstop
# Perfect Si lattice with one primary knock-on atom.
#
# Also uses fix dt/reset, as one should when energies are high
# enough to require electronic stopping.

units metal
boundary p p p
timestep 0.0001

lattice fcc 5.431
Lattice spacing in x,y,z = 5.431 5.431 5.431

region rbox block -10 10 -10 10 -10 10
create_box 1 rbox
Created orthogonal box = (-54.31 -54.31 -54.31) to (54.31 54.31 54.31)
  1 by 1 by 1 MPI processor grid

mass 1 28.0855

create_atoms 1 box
Created 32000 atoms
  Time spent = 0.00282598 secs

velocity all create 300 42534 mom yes rot yes

group gPKA id 1
1 atoms in group gPKA
velocity gPKA set 1000 1620 389

pair_style sw
pair_coeff * * Si.sw Si
Reading potential file Si.sw with DATE: 2007-06-11

fix fdt all dt/reset 1 NULL 0.001 0.1 emax 10.0
fix fel all elstop 1.0 Si.Si.elstop
fix fnve all nve

thermo 10
thermo_style custom step time dt f_fel

#compute ek all ke/atom
#dump mydump all custom 200 elstop.dump id x y z vx vy vz fx fy fz c_ek

run 5000
Neighbor list info ...
  update every 1 steps, delay 10 steps, check yes
  max neighbors/atom: 2000, page size: 100000
  master list distance cutoff = 5.77118
  ghost atom cutoff = 5.77118
  binsize = 2.88559, bins = 38 38 38
  2 neighbor lists, perpetual/occasional/extra = 1 1 0
  (1) pair sw, perpetual
      attributes: full, newton on
      pair build: full/bin/atomonly
      stencil: full/bin/3d
      bin: standard
  (2) fix elstop, occasional, copy from (1)
      attributes: full, newton on
      pair build: copy
      stencil: none
      bin: none
Per MPI rank memory allocation (min/avg/max) = 10.89 | 10.89 | 10.89 Mbytes
Step Time Dt f_fel 
       0            0 5.1463587e-05            0 
      10 0.00024735669 1.3735643e-05     110.5029 
      20 0.00033242407 5.5893405e-06    148.48323 
      30 0.00039392291 9.3352723e-06    175.93311 
      40 0.00058170859 1.599845e-05    259.73699 
      50 0.00079481988 1.806434e-05    354.79303 
      60 0.00088874667 3.5887523e-06    396.66697 
      70 0.0009137276 1.6912428e-06    407.79739 
      80 0.00092780411 1.1543519e-06    414.06679 
      90 0.00093817099 9.2388423e-07    418.68266 
     100 0.00094683655 8.1105212e-07    422.54021 
     110 0.0009546785 7.6034619e-07    426.03065 
     120 0.00096221656 7.5314888e-07     429.3856 
     130 0.00096986496 7.8725963e-07    432.78963 
     140 0.00097807799 8.7503968e-07    436.44518 
     150 0.00098753754 1.0565972e-06    440.65605 
     160 0.00099963489 1.4632741e-06    446.04213 
     170 0.0010186497 2.7836881e-06     454.5103 
     180 0.0011053691 3.5540211e-05    493.14423 
     190 0.0012725406 8.2790136e-06    567.60406 
     200 0.0013560756 1.3214116e-05    604.79355 
     210 0.0015848269 2.127461e-05    706.60467 
     220 0.0017988324 2.0139067e-05     801.7959 
     230 0.0019897985 2.3286687e-05    886.68849 
     240 0.0022181659 2.1076747e-05    988.15049 
     250 0.0024426919 2.3976048e-05    1087.8442 
     260 0.0026329835 1.135342e-05     1172.289 
     270 0.0027220726 9.1556604e-06    1211.8024 
     280 0.0029092864 1.6919412e-05    1294.8141 
     290 0.0030027662 4.4139552e-06    1336.2445 
     300 0.0030376383 2.8807242e-06    1351.6929 
     310 0.0030663947 3.1217243e-06    1364.4299 
     320 0.0031082024 7.3169995e-06    1382.9482 
     330  0.003312379 1.9343869e-05    1473.3842 
     340 0.0035236035 1.7428915e-05    1566.8897 
     350 0.0036183171 4.3639542e-06    1608.7956 
     360 0.0036529752 2.8797113e-06    1624.1233 
     370 0.0036817779 3.1315983e-06    1636.8591 
     380 0.0037236757 7.2975474e-06    1655.3858 
     390 0.0038886879 7.9543823e-06    1728.3515 
     400 0.0039280941 1.7293872e-06    1745.7668 
     410 0.0039405543 8.5458781e-07    1751.2697 
     420 0.0039475068 5.4611112e-07    1754.3382 
     430 0.0039522076 3.9375701e-07    1756.4117 
     440 0.0039557086 3.0444152e-07     1757.955 
     450  0.003958473 2.4633429e-07    1759.1728 
     460 0.0039607428 2.0578595e-07    1760.1722 
     470 0.0039626597 1.7602719e-07    1761.0157 
     480 0.0039643131 1.5334042e-07    1761.7428 
     490  0.003965763 1.3552347e-07    1762.3801 
     500 0.0039670513 1.2119322e-07     1762.946 
     510 0.0039682085 1.0943951e-07     1763.454 
     520 0.0039692574 9.9640158e-08    1763.9142 
     530 0.0039702154 9.1356126e-08    1764.3343 
     540 0.0039710962 8.4269225e-08    1764.7203 
     550 0.0039719106 7.8143482e-08     1765.077 
     560 0.0039726674 7.2800385e-08    1765.4083 
     570 0.0039733738 6.8102517e-08    1765.7174 
     580 0.0039740357 6.3942463e-08    1766.0068 
     590 0.0039746581 6.0235102e-08    1766.2788 
     600 0.0039752452 5.6912155e-08    1766.5353 
     610 0.0039758006 5.3918244e-08    1766.7777 
     620 0.0039763273 5.1208006e-08    1767.0076 
     630 0.0039768281 4.8743945e-08    1767.2259 
     640 0.0039773053 4.6494811e-08    1767.4339 
     650 0.0039777608 4.4434359e-08    1767.6323 
     660 0.0039781965 4.2540397e-08     1767.822 
     670 0.0039786139 4.0794035e-08    1768.0036 
     680 0.0039790145 3.9179101e-08    1768.1778 
     690 0.0039793995 3.768167e-08    1768.3451 
     700   0.00397977 3.6289694e-08    1768.5061 
     710 0.0039801269 3.4992692e-08    1768.6611 
     720 0.0039804713 3.3781514e-08    1768.8105 
     730  0.003980804 3.264813e-08    1768.9548 
     740 0.0039811256 3.158547e-08    1769.0942 
     750  0.003981437 3.0587283e-08    1769.2291 
     760 0.0039817386 2.9648025e-08    1769.3597 
     770  0.003982031 2.8762761e-08    1769.4862 
     780 0.0039823148 2.7927085e-08     1769.609 
     790 0.0039825905 2.7137051e-08    1769.7282 
     800 0.0039828585 2.6389116e-08     1769.844 
     810 0.0039831192 2.5680089e-08    1769.9566 
     820 0.0039833729 2.500709e-08    1770.0661 
     830 0.0039836201 2.4367512e-08    1770.1727 
     840  0.003983861 2.375899e-08    1770.2766 
     850 0.0039840959 2.3179376e-08    1770.3779 
     860 0.0039843252 2.262671e-08    1770.4766 
     870 0.0039845491 2.2099205e-08     1770.573 
     880 0.0039847678 2.1595226e-08    1770.6671 
     890 0.0039849816 2.1113276e-08     1770.759 
     900 0.0039851906 2.0651978e-08    1770.8489 
     910 0.0039853951 2.0210068e-08    1770.9368 
     920 0.0039855953 1.9786381e-08    1771.0227 
     930 0.0039857913 1.9379843e-08    1771.1069 
     940 0.0039859834 1.8989461e-08    1771.1892 
     950 0.0039861715 1.8614316e-08    1771.2699 
     960 0.0039863561 1.8253557e-08     1771.349 
     970  0.003986537 1.7906395e-08    1771.4265 
     980 0.0039867146 1.7572095e-08    1771.5025 
     990 0.0039868888 1.7249975e-08    1771.5771 
    1000 0.0039870599  1.69394e-08    1771.6503 
    1010  0.003987228 1.6639776e-08    1771.7221 
    1020  0.003987393 1.635055e-08    1771.7926 
    1030 0.0039875553 1.6071205e-08    1771.8619 
    1040 0.0039877148 1.5801256e-08      1771.93 
    1050 0.0039878716 1.5540252e-08    1771.9969 
    1060 0.0039880259 1.5287766e-08    1772.0627 
    1070 0.0039881776  1.50434e-08    1772.1273 
    1080  0.003988327 1.4806779e-08     1772.191 
    1090  0.003988474 1.4577551e-08    1772.2536 
    1100 0.0039886188 1.4355386e-08    1772.3152 
    1110 0.0039887614 1.413997e-08    1772.3758 
    1120 0.0039889018 1.3931009e-08    1772.4355 
    1130 0.0039890402 1.3728226e-08    1772.4943 
    1140 0.0039891766 1.3531358e-08    1772.5523 
    1150 0.0039893111 1.3340159e-08    1772.6093 
    1160 0.0039894436 1.3154393e-08    1772.6656 
    1170 0.0039895744 1.2973839e-08     1772.721 
    1180 0.0039897033 1.2798288e-08    1772.7757 
    1190 0.0039898305 1.2627539e-08    1772.8296 
    1200  0.003989956 1.2461406e-08    1772.8827 
    1210 0.0039900799 1.2299708e-08    1772.9352 
    1220 0.0039902022 1.2142275e-08    1772.9869 
    1230 0.0039903229 1.1988947e-08     1773.038 
    1240 0.0039904421 1.1839569e-08    1773.0884 
    1250 0.0039905599 1.1693996e-08    1773.1381 
    1260 0.0039906762 1.1552088e-08    1773.1872 
    1270 0.0039907911 1.1413714e-08    1773.2357 
    1280 0.0039909046 1.1278746e-08    1773.2836 
    1290 0.0039910168 1.1147064e-08    1773.3309 
    1300 0.0039911277 1.1018554e-08    1773.3776 
    1310 0.0039912373 1.0893106e-08    1773.4238 
    1320 0.0039913457 1.0770615e-08    1773.4695 
    1330 0.0039914528 1.0650982e-08    1773.5146 
    1340 0.0039915588 1.0534111e-08    1773.5591 
    1350 0.0039916637 1.041991e-08    1773.6032 
    1360 0.0039917674 1.0308292e-08    1773.6468 
    1370 0.0039918699 1.0199173e-08    1773.6899 
    1380 0.0039919715 1.0092473e-08    1773.7325 
    1390 0.0039920719 9.9881148e-09    1773.7747 
    1400 0.0039921713 9.8860254e-09    1773.8164 
    1410 0.0039922697 9.7861339e-09    1773.8577 
    1420 0.0039923672 9.6883723e-09    1773.8985 
    1430 0.0039924636 9.5926758e-09    1773.9389 
    1440 0.0039925591 9.4989819e-09    1773.9789 
    1450 0.0039926537 9.4072306e-09    1774.0185 
    1460 0.0039927473 9.3173642e-09    1774.0577 
    1470 0.0039928401 9.2293274e-09    1774.0965 
    1480  0.003992932 9.1430669e-09    1774.1349 
    1490 0.0039930231 9.0585314e-09    1774.1729 
    1500 0.0039931133 8.9756716e-09    1774.2106 
    1510 0.0039932027  8.89444e-09    1774.2479 
    1520 0.0039932913 8.814791e-09    1774.2848 
    1530 0.0039933791 8.7366805e-09    1774.3215 
    1540 0.0039934661 8.660066e-09    1774.3577 
    1550 0.0039935523 8.5849066e-09    1774.3937 
    1560 0.0039936379 8.511163e-09    1774.4293 
    1570 0.0039937226 8.438797e-09    1774.4646 
    1580 0.0039938067 8.367772e-09    1774.4996 
    1590 0.0039938901 8.2980525e-09    1774.5342 
    1600 0.0039939727 8.2296043e-09    1774.5686 
    1610 0.0039940547 8.1623945e-09    1774.6027 
    1620 0.0039941361 8.096391e-09    1774.6364 
    1630 0.0039942167 8.0315631e-09    1774.6699 
    1640 0.0039942968 7.967881e-09    1774.7031 
    1650 0.0039943762 7.9053159e-09    1774.7361 
    1660 0.0039944549 7.8438398e-09    1774.7687 
    1670 0.0039945331 7.783426e-09    1774.8011 
    1680 0.0039946107 7.7240482e-09    1774.8333 
    1690 0.0039946876 7.6656813e-09    1774.8651 
    1700  0.003994764 7.6083009e-09    1774.8968 
    1710 0.0039948399 7.5518832e-09    1774.9281 
    1720 0.0039949151 7.4964054e-09    1774.9593 
    1730 0.0039949899 7.4418452e-09    1774.9901 
    1740  0.003995064 7.3881813e-09    1775.0208 
    1750 0.0039951377 7.3353927e-09    1775.0512 
    1760 0.0039952108 7.2834592e-09    1775.0814 
    1770 0.0039952834 7.2323612e-09    1775.1114 
    1780 0.0039953555 7.1820797e-09    1775.1411 
    1790 0.0039954271 7.1325964e-09    1775.1706 
    1800 0.0039954982 7.0838932e-09    1775.1999 
    1810 0.0039955688 7.0359529e-09     1775.229 
    1820  0.003995639 6.9887585e-09    1775.2579 
    1830 0.0039957086 6.9422938e-09    1775.2866 
    1840 0.0039957779 6.8965428e-09     1775.315 
    1850 0.0039958466  6.85149e-09    1775.3433 
    1860 0.0039959149 6.8071206e-09    1775.3714 
    1870 0.0039959828 6.7634198e-09    1775.3993 
    1880 0.0039960503 6.7203736e-09     1775.427 
    1890 0.0039961173 6.6779682e-09    1775.4545 
    1900 0.0039961839 6.6361902e-09    1775.4818 
    1910   0.00399625 6.5950266e-09     1775.509 
    1920 0.0039963158 6.5544646e-09    1775.5359 
    1930 0.0039963812 6.514492e-09    1775.5627 
    1940 0.0039964461 6.4750969e-09    1775.5893 
    1950 0.0039965107 6.4362675e-09    1775.6158 
    1960 0.0039965749 6.3979924e-09    1775.6421 
    1970 0.0039966387 6.3602607e-09    1775.6682 
    1980 0.0039967021 6.3230615e-09    1775.6941 
    1990 0.0039967652 6.2863845e-09    1775.7199 
    2000 0.0039968279 6.2502193e-09    1775.7455 
    2010 0.0039968902 6.214556e-09     1775.771 
    2020 0.0039969522 6.179385e-09    1775.7963 
    2030 0.0039970139 6.1446968e-09    1775.8215 
    2040 0.0039970752 6.1104822e-09    1775.8465 
    2050 0.0039971361 6.0767322e-09    1775.8713 
    2060 0.0039971967 6.043438e-09    1775.8961 
    2070  0.003997257 6.0105913e-09    1775.9206 
    2080  0.003997317 5.9781835e-09     1775.945 
    2090 0.0039973766 5.9462067e-09    1775.9693 
    2100 0.0039974359 5.9146529e-09    1775.9935 
    2110 0.0039974949 5.8835144e-09    1776.0175 
    2120 0.0039975536 5.8527836e-09    1776.0414 
    2130  0.003997612 5.8224533e-09    1776.0651 
    2140 0.0039976701 5.7925161e-09    1776.0887 
    2150 0.0039977279 5.7629652e-09    1776.1122 
    2160 0.0039977854 5.7337937e-09    1776.1355 
    2170 0.0039978426 5.7049948e-09    1776.1587 
    2180 0.0039978995 5.6765622e-09    1776.1818 
    2190 0.0039979562 5.6484893e-09    1776.2048 
    2200 0.0039980125 5.6207701e-09    1776.2277 
    2210 0.0039980686 5.5933983e-09    1776.2504 
    2220 0.0039981244 5.5663681e-09     1776.273 
    2230   0.00399818 5.5396736e-09    1776.2955 
    2240 0.0039982353 5.5133092e-09    1776.3179 
    2250 0.0039982903 5.4872694e-09    1776.3401 
    2260  0.003998345 5.4615486e-09    1776.3623 
    2270 0.0039983995 5.4361417e-09    1776.3843 
    2280 0.0039984538 5.4110434e-09    1776.4062 
    2290 0.0039985078 5.3862486e-09     1776.428 
    2300 0.0039985615 5.3617524e-09    1776.4497 
    2310  0.003998615  5.33755e-09    1776.4713 
    2320 0.0039986683 5.3136366e-09    1776.4928 
    2330 0.0039987213 5.2900075e-09    1776.5142 
    2340 0.0039987741 5.2666583e-09    1776.5355 
    2350 0.0039988267 5.2435844e-09    1776.5567 
    2360  0.003998879 5.2207815e-09    1776.5778 
    2370 0.0039989311 5.1982454e-09    1776.5988 
    2380  0.003998983 5.1759719e-09    1776.6197 
    2390 0.0039990347 5.1539569e-09    1776.6405 
    2400 0.0039990861 5.1321964e-09    1776.6612 
    2410 0.0039991373 5.1106865e-09    1776.6818 
    2420 0.0039991884 5.0894233e-09    1776.7023 
    2430 0.0039992392 5.0684032e-09    1776.7227 
    2440 0.0039992897 5.0476224e-09     1776.743 
    2450 0.0039993401 5.0270774e-09    1776.7632 
    2460 0.0039993903 5.0067645e-09    1776.7834 
    2470 0.0039994403 4.9866804e-09    1776.8034 
    2480 0.0039994901 4.9668217e-09    1776.8234 
    2490 0.0039995396 4.947185e-09    1776.8433 
    2500  0.003999589 4.9277671e-09    1776.8631 
    2510 0.0039996382 4.9085647e-09    1776.8828 
    2520 0.0039996872 4.8895749e-09    1776.9024 
    2530  0.003999736 4.8707944e-09     1776.922 
    2540 0.0039997846 4.8522204e-09    1776.9414 
    2550 0.0039998331 4.8338498e-09    1776.9608 
    2560 0.0039998813 4.8156798e-09    1776.9801 
    2570 0.0039999294 4.7977075e-09    1776.9993 
    2580 0.0039999773 4.7799301e-09    1777.0185 
    2590  0.004000025 4.762345e-09    1777.0375 
    2600 0.0040000726 4.7449494e-09    1777.0565 
    2610   0.00400012 4.7277407e-09    1777.0754 
    2620 0.0040001672 4.7107164e-09    1777.0943 
    2630 0.0040002142 4.6938739e-09     1777.113 
    2640  0.004000261 4.6772107e-09    1777.1317 
    2650 0.0040003077 4.6607244e-09    1777.1503 
    2660 0.0040003543 4.6444127e-09    1777.1689 
    2670 0.0040004007 4.6282732e-09    1777.1873 
    2680 0.0040004469 4.6123035e-09    1777.2058 
    2690 0.0040004929 4.5965015e-09    1777.2241 
    2700 0.0040005388 4.5808648e-09    1777.2424 
    2710 0.0040005845 4.5653914e-09    1777.2605 
    2720 0.0040006301 4.5500791e-09    1777.2787 
    2730 0.0040006756 4.5349258e-09    1777.2967 
    2740 0.0040007208 4.5199294e-09    1777.3147 
    2750  0.004000766 4.5050879e-09    1777.3327 
    2760  0.004000811 4.4903993e-09    1777.3505 
    2770 0.0040008558 4.4758618e-09    1777.3683 
    2780 0.0040009005 4.4614732e-09    1777.3861 
    2790  0.004000945 4.4472318e-09    1777.4037 
    2800 0.0040009895 4.4331358e-09    1777.4214 
    2810 0.0040010337 4.4191832e-09    1777.4389 
    2820 0.0040010779 4.4053723e-09    1777.4564 
    2830 0.0040011218 4.3917014e-09    1777.4738 
    2840 0.0040011657 4.3781688e-09    1777.4912 
    2850 0.0040012094 4.3647726e-09    1777.5085 
    2860  0.004001253 4.3515113e-09    1777.5258 
    2870 0.0040012965 4.3383833e-09    1777.5429 
    2880 0.0040013398 4.3253869e-09    1777.5601 
    2890  0.004001383 4.3125204e-09    1777.5772 
    2900 0.0040014261 4.2997825e-09    1777.5942 
    2910  0.004001469 4.2871715e-09    1777.6112 
    2920 0.0040015118 4.274686e-09    1777.6281 
    2930 0.0040015545 4.2623244e-09    1777.6449 
    2940 0.0040015971 4.2500853e-09    1777.6617 
    2950 0.0040016395 4.2379673e-09    1777.6785 
    2960 0.0040016818 4.225969e-09    1777.6952 
    2970  0.004001724 4.214089e-09    1777.7118 
    2980 0.0040017661 4.2023258e-09    1777.7284 
    2990 0.0040018081 4.1906783e-09     1777.745 
    3000   0.00400185 4.179145e-09    1777.7614 
    3010 0.0040018917 4.1677248e-09    1777.7779 
    3020 0.0040019333 4.1564162e-09    1777.7943 
    3030 0.0040019748 4.145218e-09    1777.8106 
    3040 0.0040020162 4.1341291e-09    1777.8269 
    3050 0.0040020575 4.1231482e-09    1777.8431 
    3060 0.0040020987 4.1122741e-09    1777.8593 
    3070 0.0040021398 4.1015056e-09    1777.8755 
    3080 0.0040021808 4.0908416e-09    1777.8916 
    3090 0.0040022216 4.0802809e-09    1777.9076 
    3100 0.0040022624 4.0698225e-09    1777.9236 
    3110  0.004002303 4.0594651e-09    1777.9396 
    3120 0.0040023436 4.0492078e-09    1777.9555 
    3130  0.004002384 4.0390494e-09    1777.9714 
    3140 0.0040024244 4.028989e-09    1777.9872 
    3150 0.0040024646 4.0190254e-09     1778.003 
    3160 0.0040025048 4.0091577e-09    1778.0187 
    3170 0.0040025448 3.9993849e-09    1778.0344 
    3180 0.0040025848 3.9897059e-09    1778.0501 
    3190 0.0040026246 3.9801198e-09    1778.0657 
    3200 0.0040026644 3.9706257e-09    1778.0812 
    3210  0.004002704 3.9612225e-09    1778.0968 
    3220 0.0040027436 3.9519094e-09    1778.1122 
    3230 0.0040027831 3.9426855e-09    1778.1277 
    3240 0.0040028225 3.9335498e-09    1778.1431 
    3250 0.0040028618 3.9245014e-09    1778.1584 
    3260  0.004002901 3.9155396e-09    1778.1738 
    3270 0.0040029401 3.9066634e-09    1778.1891 
    3280 0.0040029791 3.897872e-09    1778.2043 
    3290  0.004003018 3.8891645e-09    1778.2195 
    3300 0.0040030569 3.8805402e-09    1778.2347 
    3310 0.0040030957 3.8719982e-09    1778.2498 
    3320 0.0040031343 3.8635377e-09    1778.2649 
    3330 0.0040031729 3.855158e-09    1778.2799 
    3340 0.0040032115 3.8468582e-09    1778.2949 
    3350 0.0040032499 3.8386376e-09    1778.3099 
    3360 0.0040032882 3.8304955e-09    1778.3249 
    3370 0.0040033265 3.822431e-09    1778.3398 
    3380 0.0040033647 3.8144436e-09    1778.3546 
    3390 0.0040034028 3.8065324e-09    1778.3695 
    3400 0.0040034408 3.7986968e-09    1778.3843 
    3410 0.0040034788 3.790936e-09     1778.399 
    3420 0.0040035167 3.7832494e-09    1778.4138 
    3430 0.0040035545 3.7756363e-09    1778.4285 
    3440 0.0040035922 3.768096e-09    1778.4431 
    3450 0.0040036298 3.7606279e-09    1778.4578 
    3460 0.0040036674 3.7532313e-09    1778.4724 
    3470 0.0040037049 3.7459056e-09    1778.4869 
    3480 0.0040037423 3.7386501e-09    1778.5014 
    3490 0.0040037797 3.7314642e-09    1778.5159 
    3500  0.004003817 3.7243474e-09    1778.5304 
    3510 0.0040038542 3.717299e-09    1778.5448 
    3520 0.0040038913 3.7103184e-09    1778.5592 
    3530 0.0040039284 3.703405e-09    1778.5736 
    3540 0.0040039654 3.6965583e-09     1778.588 
    3550 0.0040040023 3.6897776e-09    1778.6023 
    3560 0.0040040392 3.6830625e-09    1778.6165 
    3570  0.004004076 3.6764124e-09    1778.6308 
    3580 0.0040041127 3.6698266e-09     1778.645 
    3590 0.0040041494 3.6633048e-09    1778.6592 
    3600  0.004004186 3.6568463e-09    1778.6734 
    3610 0.0040042225 3.6504507e-09    1778.6875 
    3620  0.004004259 3.6441173e-09    1778.7016 
    3630 0.0040042954 3.6378458e-09    1778.7157 
    3640 0.0040043318 3.6316356e-09    1778.7297 
    3650 0.0040043681 3.6254862e-09    1778.7437 
    3660 0.0040044043 3.6193972e-09    1778.7577 
    3670 0.0040044405 3.6133679e-09    1778.7717 
    3680 0.0040044766 3.6073981e-09    1778.7856 
    3690 0.0040045126 3.6014872e-09    1778.7995 
    3700 0.0040045486 3.5956347e-09    1778.8134 
    3710 0.0040045845 3.5898402e-09    1778.8272 
    3720 0.0040046204 3.5841032e-09    1778.8411 
    3730 0.0040046562 3.5784234e-09    1778.8549 
    3740  0.004004692 3.5728002e-09    1778.8687 
    3750 0.0040047277 3.5672333e-09    1778.8824 
    3760 0.0040047633 3.5617222e-09    1778.8961 
    3770 0.0040047989 3.5562665e-09    1778.9098 
    3780 0.0040048345 3.5508658e-09    1778.9235 
    3790   0.00400487 3.5455197e-09    1778.9372 
    3800 0.0040049054 3.5402277e-09    1778.9508 
    3810 0.0040049408 3.5349896e-09    1778.9644 
    3820 0.0040049761 3.5298048e-09     1778.978 
    3830 0.0040050114 3.5246731e-09    1778.9915 
    3840 0.0040050466 3.519594e-09    1779.0051 
    3850 0.0040050818 3.5145672e-09    1779.0186 
    3860 0.0040051169 3.5095923e-09    1779.0321 
    3870  0.004005152 3.5046689e-09    1779.0455 
    3880  0.004005187 3.4997967e-09     1779.059 
    3890  0.004005222 3.4949753e-09    1779.0724 
    3900 0.0040052569 3.4902045e-09    1779.0858 
    3910 0.0040052918 3.4854837e-09    1779.0992 
    3920 0.0040053266 3.4808128e-09    1779.1125 
    3930 0.0040053614 3.4761913e-09    1779.1259 
    3940 0.0040053961 3.4716189e-09    1779.1392 
    3950 0.0040054308 3.4670954e-09    1779.1525 
    3960 0.0040054655 3.4626204e-09    1779.1658 
    3970 0.0040055001 3.4581936e-09     1779.179 
    3980 0.0040055346 3.4538146e-09    1779.1922 
    3990 0.0040055692 3.4494832e-09    1779.2054 
    4000 0.0040056036 3.445199e-09    1779.2186 
    4010 0.0040056381 3.4409619e-09    1779.2318 
    4020 0.0040056725 3.4367714e-09     1779.245 
    4030 0.0040057068 3.4326273e-09    1779.2581 
    4040 0.0040057411 3.4285292e-09    1779.2712 
    4050 0.0040057754 3.424477e-09    1779.2843 
    4060 0.0040058096 3.4204704e-09    1779.2974 
    4070 0.0040058438 3.416509e-09    1779.3104 
    4080 0.0040058779 3.4125926e-09    1779.3235 
    4090 0.0040059121 3.408721e-09    1779.3365 
    4100 0.0040059461 3.4048938e-09    1779.3495 
    4110 0.0040059802 3.4011108e-09    1779.3625 
    4120 0.0040060142 3.3973718e-09    1779.3755 
    4130 0.0040060481 3.3936765e-09    1779.3884 
    4140  0.004006082 3.3900247e-09    1779.4013 
    4150 0.0040061159 3.3864161e-09    1779.4143 
    4160 0.0040061498 3.3828505e-09    1779.4272 
    4170 0.0040061836 3.3793276e-09    1779.4401 
    4180 0.0040062174 3.3758472e-09    1779.4529 
    4190 0.0040062511 3.3724092e-09    1779.4658 
    4200 0.0040062848 3.3690132e-09    1779.4786 
    4210 0.0040063185 3.365659e-09    1779.4914 
    4220 0.0040063521 3.3623464e-09    1779.5042 
    4230 0.0040063857 3.3590753e-09     1779.517 
    4240 0.0040064193 3.3558453e-09    1779.5298 
    4250 0.0040064528 3.3526563e-09    1779.5426 
    4260 0.0040064864 3.3495081e-09    1779.5553 
    4270 0.0040065198 3.3464005e-09     1779.568 
    4280 0.0040065533 3.3433332e-09    1779.5807 
    4290 0.0040065867 3.3403061e-09    1779.5934 
    4300 0.0040066201 3.337319e-09    1779.6061 
    4310 0.0040066535 3.3343717e-09    1779.6188 
    4320 0.0040066868 3.3314639e-09    1779.6315 
    4330 0.0040067201 3.3285956e-09    1779.6441 
    4340 0.0040067534 3.3257666e-09    1779.6567 
    4350 0.0040067866 3.3229766e-09    1779.6694 
    4360 0.0040068198 3.3202255e-09     1779.682 
    4370  0.004006853 3.317513e-09    1779.6945 
    4380 0.0040068862 3.3148392e-09    1779.7071 
    4390 0.0040069193 3.3122037e-09    1779.7197 
    4400 0.0040069524 3.3096064e-09    1779.7322 
    4410 0.0040069855 3.3070471e-09    1779.7448 
    4420 0.0040070186 3.3045257e-09    1779.7573 
    4430 0.0040070516 3.3020421e-09    1779.7698 
    4440 0.0040070846 3.299596e-09    1779.7823 
    4450 0.0040071176 3.2971873e-09    1779.7948 
    4460 0.0040071506 3.294816e-09    1779.8073 
    4470 0.0040071835 3.2924817e-09    1779.8198 
    4480 0.0040072164 3.2901844e-09    1779.8322 
    4490 0.0040072493 3.287924e-09    1779.8447 
    4500 0.0040072822 3.2857002e-09    1779.8571 
    4510  0.004007315 3.2835131e-09    1779.8695 
    4520 0.0040073478 3.2813623e-09    1779.8819 
    4530 0.0040073807 3.2792479e-09    1779.8944 
    4540 0.0040074134 3.2771696e-09    1779.9067 
    4550 0.0040074462 3.2751274e-09    1779.9191 
    4560 0.0040074789 3.2731211e-09    1779.9315 
    4570 0.0040075117 3.2711506e-09    1779.9439 
    4580 0.0040075444 3.2692158e-09    1779.9562 
    4590  0.004007577 3.2673166e-09    1779.9686 
    4600 0.0040076097 3.2654528e-09    1779.9809 
    4610 0.0040076424 3.2636243e-09    1779.9932 
    4620  0.004007675 3.2618311e-09    1780.0055 
    4630 0.0040077076 3.2600729e-09    1780.0178 
    4640 0.0040077402 3.2583498e-09    1780.0301 
    4650 0.0040077728 3.2566616e-09    1780.0424 
    4660 0.0040078053 3.2550082e-09    1780.0547 
    4670 0.0040078379 3.2533895e-09     1780.067 
    4680 0.0040078704 3.2518055e-09    1780.0792 
    4690 0.0040079029 3.2502559e-09    1780.0915 
    4700 0.0040079354 3.2487408e-09    1780.1038 
    4710 0.0040079679  3.24726e-09     1780.116 
    4720 0.0040080004 3.2458135e-09    1780.1282 
    4730 0.0040080328 3.2444011e-09    1780.1404 
    4740 0.0040080652 3.2430228e-09    1780.1527 
    4750 0.0040080977 3.2416785e-09    1780.1649 
    4760 0.0040081301 3.2403681e-09    1780.1771 
    4770 0.0040081625 3.2390916e-09    1780.1893 
    4780 0.0040081949 3.2378488e-09    1780.2015 
    4790 0.0040082272 3.2366397e-09    1780.2136 
    4800 0.0040082596 3.2354642e-09    1780.2258 
    4810 0.0040082919 3.2343223e-09     1780.238 
    4820 0.0040083243 3.2332139e-09    1780.2502 
    4830 0.0040083566 3.2321389e-09    1780.2623 
    4840 0.0040083889 3.2310972e-09    1780.2745 
    4850 0.0040084212 3.2300888e-09    1780.2866 
    4860 0.0040084535 3.2291137e-09    1780.2988 
    4870 0.0040084858 3.2281718e-09    1780.3109 
    4880 0.0040085181 3.2272629e-09     1780.323 
    4890 0.0040085504 3.2263872e-09    1780.3351 
    4900 0.0040085826 3.2255444e-09    1780.3473 
    4910 0.0040086149 3.2247346e-09    1780.3594 
    4920 0.0040086471 3.2239578e-09    1780.3715 
    4930 0.0040086794 3.2232138e-09    1780.3836 
    4940 0.0040087116 3.2225027e-09    1780.3957 
    4950 0.0040087438 3.2218243e-09    1780.4078 
    4960  0.004008776 3.2211787e-09    1780.4199 
    4970 0.0040088082 3.2205658e-09     1780.432 
    4980 0.0040088404 3.2199856e-09     1780.444 
    4990 0.0040088726 3.219438e-09    1780.4561 
    5000 0.0040089048 3.218923e-09    1780.4682 
Loop time of 18.4156 on 1 procs for 5000 steps with 32000 atoms

Performance: 0.000 ns/day, 317836.151 hours/ns, 271.509 timesteps/s
99.7% CPU use with 1 MPI tasks x 1 OpenMP threads

MPI task timing breakdown:
Section |  min time  |  avg time  |  max time  |%varavg| %total
---------------------------------------------------------------
Pair    | 11.419     | 11.419     | 11.419     |   0.0 | 62.01
Neigh   | 0.53866    | 0.53866    | 0.53866    |   0.0 |  2.93
Comm    | 0.67608    | 0.67608    | 0.67608    |   0.0 |  3.67
Output  | 0.0069361  | 0.0069361  | 0.0069361  |   0.0 |  0.04
Modify  | 5.1325     | 5.1325     | 5.1325     |   0.0 | 27.87
Other   |            | 0.6424     |            |       |  3.49

Nlocal:    32000 ave 32000 max 32000 min
Histogram: 1 0 0 0 0 0 0 0 0 0
Nghost:    13556 ave 13556 max 13556 min
Histogram: 1 0 0 0 0 0 0 0 0 0
Neighs:    0 ave 0 max 0 min
Histogram: 1 0 0 0 0 0 0 0 0 0
FullNghs:  576002 ave 576002 max 576002 min
Histogram: 1 0 0 0 0 0 0 0 0 0

Total # of neighbors = 576002
Ave neighs/atom = 18.0001
Neighbor list builds = 25
Dangerous builds = 14
Total wall time: 0:00:18
