LAMMPS (8 Feb 2019)
OMP_NUM_THREADS environment is not set. Defaulting to 1 thread. (src/comm.cpp:87)
  using 1 OpenMP thread(s) per MPI task
# Test case / example for the electronic stopping fix elstop
# Perfect Si lattice with one primary knock-on atom.
#
# Also uses fix dt/reset, as one should when energies are high
# enough to require electronic stopping.

units metal
boundary p p p
timestep 0.0001

lattice fcc 5.431
Lattice spacing in x,y,z = 5.431 5.431 5.431

region rbox block -10 10 -10 10 -10 10
create_box 1 rbox
Created orthogonal box = (-54.31 -54.31 -54.31) to (54.31 54.31 54.31)
  1 by 2 by 2 MPI processor grid

mass 1 28.0855

create_atoms 1 box
Created 32000 atoms
  Time spent = 0.000841856 secs

velocity all create 300 42534 mom yes rot yes

group gPKA id 1
1 atoms in group gPKA
velocity gPKA set 1000 1620 389

pair_style sw
pair_coeff * * Si.sw Si
Reading potential file Si.sw with DATE: 2007-06-11

fix fdt all dt/reset 1 NULL 0.001 0.1 emax 10.0
fix fel all elstop 1.0 Si.Si.elstop
fix fnve all nve

thermo 10
thermo_style custom step time dt f_fel

#compute ek all ke/atom
#dump mydump all custom 200 elstop.dump id x y z vx vy vz fx fy fz c_ek

run 5000
Neighbor list info ...
  update every 1 steps, delay 10 steps, check yes
  max neighbors/atom: 2000, page size: 100000
  master list distance cutoff = 5.77118
  ghost atom cutoff = 5.77118
  binsize = 2.88559, bins = 38 38 38
  2 neighbor lists, perpetual/occasional/extra = 1 1 0
  (1) pair sw, perpetual
      attributes: full, newton on
      pair build: full/bin/atomonly
      stencil: full/bin/3d
      bin: standard
  (2) fix elstop, occasional, copy from (1)
      attributes: full, newton on
      pair build: copy
      stencil: none
      bin: none
Per MPI rank memory allocation (min/avg/max) = 3.825 | 3.825 | 3.825 Mbytes
Step Time Dt f_fel 
       0            0 5.1463587e-05            0 
      10 0.00024735659 1.3735561e-05    110.50285 
      20 0.0003324232 5.5892535e-06    148.48284 
      30 0.00039392017 9.3346734e-06    175.93189 
      40 0.0005817038 1.5998773e-05    259.73485 
      50 0.00079481558 1.8064873e-05    354.79112 
      60 0.00088874616 3.5888941e-06    396.66674 
      70 0.00091372803 1.6913072e-06    407.79758 
      80 0.00092780512 1.1544054e-06    414.06724 
      90 0.00093817253 9.2393875e-07    418.68335 
     100 0.00094683867 8.1111365e-07    422.54116 
     110 0.00095468128 7.6042074e-07     426.0319 
     120 0.00096222018 7.5324521e-07    429.38722 
     130 0.00096986969 7.8739349e-07    432.79174 
     140 0.00097808434 8.7524406e-07    436.44801 
     150 0.00098754652 1.0569566e-06    440.66005 
     160 0.00099964905 1.4640856e-06    446.04844 
     170 0.0010186791 2.7870409e-06    454.52341 
     180 0.0011059446 3.5219678e-05    493.40062 
     190 0.0012726238 8.273963e-06    567.64112 
     200 0.0013561824 1.3238519e-05    604.84108 
     210 0.0015849902 2.1271538e-05    706.67736 
     220 0.0017991347 2.0211118e-05     801.9303 
     230 0.0019922949 2.3418608e-05    887.79811 
     240 0.0022203881 2.1145768e-05    989.13764 
     250 0.0024456861 2.3839207e-05    1089.1735 
     260 0.0026352998 1.1429025e-05    1173.3167 
     270 0.0027274787 1.0094405e-05    1214.2004 
     280 0.0029223133 1.541431e-05    1300.5895 
     290 0.0030084332 4.2892462e-06    1338.7562 
     300 0.0030432501 2.979613e-06    1354.1799 
     310  0.003074016 3.5221725e-06    1367.8071 
     320 0.0031293868 1.3974681e-05    1392.3339 
     330 0.0033586387 2.0036343e-05    1493.8686 
     340 0.0035620512 1.2161435e-05    1583.9046 
     350 0.0036310996 3.8619587e-06    1614.4508 
     360 0.0036643106 3.0370368e-06    1629.1376 
     370 0.0036974903 4.133447e-06    1643.8091 
     380 0.0037945699 2.9406717e-05    1686.7394 
     390 0.0039130649 3.0848116e-06     1739.128 
     400 0.0039325768 1.1579205e-06    1747.7481 
     410  0.003941563 6.6944116e-07    1751.7155 
     420 0.0039471903 4.5874904e-07    1754.1984 
     430 0.0039512118 3.440007e-07    1755.9716 
     440  0.003954306 2.7272528e-07    1757.3352 
     450 0.0039568023 2.2454588e-07    1758.4347 
     460 0.0039588835 1.8999818e-07    1759.3508 
     470 0.0039606613 1.6412229e-07    1760.1328 
     480 0.0039622084 1.4408171e-07     1760.813 
     490 0.0039635746 1.2814315e-07    1761.4133 
     500 0.0039647957 1.1519085e-07    1761.9495 
     510 0.0039658977 1.0447573e-07    1762.4332 
     520 0.0039669008 9.5477161e-08    1762.8732 
     530 0.0039678201 8.7822597e-08    1763.2762 
     540 0.0039686679 8.1238789e-08    1763.6477 
     550 0.0039694539 7.552099e-08    1763.9919 
     560 0.0039701861 7.0512905e-08    1764.3123 
     570 0.0039708709 6.6093261e-08    1764.6118 
     580 0.0039715138 6.2166591e-08    1764.8929 
     590 0.0039721193 5.8656765e-08    1765.1575 
     600 0.0039726914 5.5502366e-08    1765.4073 
     610 0.0039732334 5.2653326e-08    1765.6438 
     620 0.0039737481 5.0068442e-08    1765.8684 
     630  0.003974238 4.7713512e-08    1766.0819 
     640 0.0039747053 4.5559915e-08    1766.2855 
     650 0.0039751518 4.3583534e-08      1766.48 
     660 0.0039755794 4.1763905e-08    1766.6661 
     670 0.0039759893 4.0083557e-08    1766.8444 
     680 0.0039763831 3.8527488e-08    1767.0156 
     690 0.0039767618 3.7082751e-08    1767.1802 
     700 0.0039771265 3.573811e-08    1767.3386 
     710 0.0039774781 3.4483774e-08    1767.4912 
     720 0.0039778176 3.3311172e-08    1767.6385 
     730 0.0039781457 3.221277e-08    1767.7808 
     740 0.0039784632 3.1181921e-08    1767.9184 
     750 0.0039787706 3.0212736e-08    1768.0515 
     760 0.0039790686 2.9299985e-08    1768.1805 
     770 0.0039793576 2.8439004e-08    1768.3056 
     780 0.0039796383 2.7625624e-08     1768.427 
     790 0.0039799111 2.6856104e-08    1768.5449 
     800 0.0039801763 2.612708e-08    1768.6595 
     810 0.0039804345 2.5435521e-08     1768.771 
     820 0.0039806858 2.4778686e-08    1768.8794 
     830 0.0039809308 2.415409e-08    1768.9851 
     840 0.0039811696 2.355948e-08    1769.0881 
     850 0.0039814027 2.2992801e-08    1769.1885 
     860 0.0039816301 2.2452183e-08    1769.2864 
     870 0.0039818523 2.1935915e-08    1769.3821 
     880 0.0039820694 2.1442431e-08    1769.4755 
     890 0.0039822817 2.0970295e-08    1769.5668 
     900 0.0039824894 2.0518188e-08     1769.656 
     910 0.0039826926 2.0084895e-08    1769.7433 
     920 0.0039828915 1.9669296e-08    1769.8288 
     930 0.0039830864 1.9270359e-08    1769.9124 
     940 0.0039832774 1.8887127e-08    1769.9943 
     950 0.0039834646 1.8518717e-08    1770.0746 
     960 0.0039836482 1.8164306e-08    1770.1532 
     970 0.0039838283 1.7823134e-08    1770.2304 
     980  0.003984005 1.7494493e-08     1770.306 
     990 0.0039841785 1.7177723e-08    1770.3802 
    1000 0.0039843489 1.687221e-08    1770.4531 
    1010 0.0039845163 1.657738e-08    1770.5247 
    1020 0.0039846808 1.6292698e-08    1770.5949 
    1030 0.0039848425 1.6017664e-08     1770.664 
    1040 0.0039850014 1.5751809e-08    1770.7318 
    1050 0.0039851578 1.5494693e-08    1770.7985 
    1060 0.0039853116 1.5245904e-08    1770.8641 
    1070  0.003985463 1.5005056e-08    1770.9286 
    1080  0.003985612 1.4771785e-08    1770.9921 
    1090 0.0039857587 1.454575e-08    1771.0545 
    1100 0.0039859031 1.4326627e-08     1771.116 
    1110 0.0039860455 1.4114115e-08    1771.1765 
    1120 0.0039861857 1.3907926e-08    1771.2361 
    1130 0.0039863238 1.3707791e-08    1771.2949 
    1140   0.00398646 1.3513454e-08    1771.3527 
    1150 0.0039865943 1.3324676e-08    1771.4097 
    1160 0.0039867267 1.3141226e-08    1771.4659 
    1170 0.0039868573 1.2962891e-08    1771.5213 
    1180 0.0039869862 1.2789464e-08    1771.5759 
    1190 0.0039871133 1.2620752e-08    1771.6298 
    1200 0.0039872388 1.2456572e-08    1771.6829 
    1210 0.0039873626 1.2296748e-08    1771.7353 
    1220 0.0039874849 1.2141115e-08     1771.787 
    1230 0.0039876056 1.1989515e-08    1771.8381 
    1240 0.0039877248 1.1841798e-08    1771.8885 
    1250 0.0039878426 1.1697821e-08    1771.9382 
    1260 0.0039879589 1.1557449e-08    1771.9874 
    1270 0.0039880739 1.1420551e-08    1772.0359 
    1280 0.0039881875 1.1287006e-08    1772.0838 
    1290 0.0039882998 1.1156694e-08    1772.1312 
    1300 0.0039884108 1.1029504e-08     1772.178 
    1310 0.0039885205 1.0905329e-08    1772.2242 
    1320  0.003988629 1.0784065e-08    1772.2699 
    1330 0.0039887363 1.0665616e-08    1772.3151 
    1340 0.0039888425 1.0549887e-08    1772.3597 
    1350 0.0039889474 1.043679e-08    1772.4039 
    1360 0.0039890513 1.0326237e-08    1772.4475 
    1370 0.0039891541 1.0218148e-08    1772.4907 
    1380 0.0039892558 1.0112443e-08    1772.5334 
    1390 0.0039893564 1.0009048e-08    1772.5757 
    1400 0.0039894561 9.9078897e-09    1772.6175 
    1410 0.0039895547 9.8088993e-09    1772.6588 
    1420 0.0039896524 9.7120101e-09    1772.6998 
    1430 0.0039897491 9.6171585e-09    1772.7403 
    1440 0.0039898448 9.5242831e-09    1772.7804 
    1450 0.0039899396 9.433325e-09    1772.8201 
    1460 0.0039900336 9.3442276e-09    1772.8594 
    1470 0.0039901266 9.2569366e-09    1772.8983 
    1480 0.0039902188 9.1713996e-09    1772.9368 
    1490 0.0039903101 9.0875663e-09     1772.975 
    1500 0.0039904006 9.0053882e-09    1773.0128 
    1510 0.0039904903 8.9248186e-09    1773.0502 
    1520 0.0039905792 8.8458127e-09    1773.0873 
    1530 0.0039906673 8.768327e-09    1773.1241 
    1540 0.0039907547  8.69232e-09    1773.1605 
    1550 0.0039908413 8.6177514e-09    1773.1966 
    1560 0.0039909271 8.5445823e-09    1773.2323 
    1570 0.0039910122 8.4727754e-09    1773.2678 
    1580 0.0039910966 8.4022946e-09    1773.3029 
    1590 0.0039911803 8.3331049e-09    1773.3377 
    1600 0.0039912634 8.2651728e-09    1773.3723 
    1610 0.0039913457 8.1984656e-09    1773.4065 
    1620 0.0039914274 8.1329521e-09    1773.4404 
    1630 0.0039915084 8.0686018e-09    1773.4741 
    1640 0.0039915888 8.0053854e-09    1773.5074 
    1650 0.0039916686 7.9432746e-09    1773.5405 
    1660 0.0039917478 7.8822419e-09    1773.5734 
    1670 0.0039918263 7.8222607e-09    1773.6059 
    1680 0.0039919043 7.7633053e-09    1773.6382 
    1690 0.0039919817 7.705351e-09    1773.6703 
    1700 0.0039920585 7.6483735e-09    1773.7021 
    1710 0.0039921347 7.5923497e-09    1773.7336 
    1720 0.0039922104 7.5372569e-09    1773.7649 
    1730 0.0039922855 7.4830732e-09     1773.796 
    1740 0.0039923601 7.4297774e-09    1773.8268 
    1750 0.0039924341 7.377349e-09    1773.8574 
    1760 0.0039925077 7.325768e-09    1773.8878 
    1770 0.0039925807 7.2750151e-09    1773.9179 
    1780 0.0039926532 7.2250716e-09    1773.9479 
    1790 0.0039927253 7.1759193e-09    1773.9776 
    1800 0.0039927968 7.1275404e-09    1774.0071 
    1810 0.0039928679 7.0799179e-09    1774.0364 
    1820 0.0039929385 7.0330352e-09    1774.0654 
    1830 0.0039930086 6.986876e-09    1774.0943 
    1840 0.0039930782 6.9414248e-09     1774.123 
    1850 0.0039931475 6.8966662e-09    1774.1515 
    1860 0.0039932162 6.8525854e-09    1774.1797 
    1870 0.0039932845 6.8091681e-09    1774.2078 
    1880 0.0039933524 6.7664002e-09    1774.2357 
    1890 0.0039934199 6.7242682e-09    1774.2634 
    1900  0.003993487 6.6827588e-09     1774.291 
    1910 0.0039935536 6.6418592e-09    1774.3183 
    1920 0.0039936199 6.6015569e-09    1774.3455 
    1930 0.0039936857 6.5618396e-09    1774.3725 
    1940 0.0039937511 6.5226956e-09    1774.3993 
    1950 0.0039938162 6.4841133e-09     1774.426 
    1960 0.0039938809 6.4460815e-09    1774.4525 
    1970 0.0039939451 6.4085892e-09    1774.4788 
    1980 0.0039940091 6.3716259e-09    1774.5049 
    1990 0.0039940726 6.3351811e-09    1774.5309 
    2000 0.0039941358 6.2992448e-09    1774.5568 
    2010 0.0039941986 6.2638071e-09    1774.5825 
    2020 0.0039942611 6.2288585e-09     1774.608 
    2030 0.0039943233 6.1943896e-09    1774.6334 
    2040  0.003994385 6.1603913e-09    1774.6586 
    2050 0.0039944465 6.1268547e-09    1774.6837 
    2060 0.0039945076 6.0937712e-09    1774.7086 
    2070 0.0039945684 6.0611324e-09    1774.7334 
    2080 0.0039946289  6.02893e-09     1774.758 
    2090  0.003994689 5.997156e-09    1774.7825 
    2100 0.0039947488 5.9658025e-09    1774.8069 
    2110 0.0039948084 5.934862e-09    1774.8311 
    2120 0.0039948676 5.9043269e-09    1774.8552 
    2130 0.0039949265 5.8741901e-09    1774.8792 
    2140 0.0039949851 5.8444443e-09     1774.903 
    2150 0.0039950434 5.8150826e-09    1774.9267 
    2160 0.0039951014 5.7860984e-09    1774.9503 
    2170 0.0039951592 5.7574849e-09    1774.9738 
    2180 0.0039952166 5.7292358e-09    1774.9971 
    2190 0.0039952738 5.7013446e-09    1775.0203 
    2200 0.0039953307 5.6738053e-09    1775.0434 
    2210 0.0039953873 5.6466118e-09    1775.0663 
    2220 0.0039954436 5.6197582e-09    1775.0892 
    2230 0.0039954997 5.5932388e-09    1775.1119 
    2240 0.0039955555 5.567048e-09    1775.1345 
    2250 0.0039956111 5.5411803e-09     1775.157 
    2260 0.0039956664 5.5156302e-09    1775.1794 
    2270 0.0039957214 5.4903926e-09    1775.2016 
    2280 0.0039957762 5.4654623e-09    1775.2238 
    2290 0.0039958307 5.4408343e-09    1775.2459 
    2300  0.003995885 5.4165037e-09    1775.2678 
    2310 0.0039959391 5.3924657e-09    1775.2896 
    2320 0.0039959929 5.3687155e-09    1775.3114 
    2330 0.0039960465 5.3452486e-09     1775.333 
    2340 0.0039960998 5.3220605e-09    1775.3545 
    2350  0.003996153 5.2991467e-09     1775.376 
    2360 0.0039962059 5.276503e-09    1775.3973 
    2370 0.0039962585 5.2541251e-09    1775.4185 
    2380  0.003996311 5.2320089e-09    1775.4397 
    2390 0.0039963632 5.2101504e-09    1775.4607 
    2400 0.0039964152 5.1885455e-09    1775.4816 
    2410  0.003996467 5.1671905e-09    1775.5025 
    2420 0.0039965185 5.1460815e-09    1775.5232 
    2430 0.0039965699 5.1252148e-09    1775.5439 
    2440 0.0039966211 5.1045867e-09    1775.5645 
    2450  0.003996672 5.0841937e-09     1775.585 
    2460 0.0039967228 5.0640323e-09    1775.6053 
    2470 0.0039967733 5.0440991e-09    1775.6256 
    2480 0.0039968237 5.0243906e-09    1775.6459 
    2490 0.0039968738 5.0049036e-09     1775.666 
    2500 0.0039969238 4.9856349e-09     1775.686 
    2510 0.0039969736 4.9665814e-09     1775.706 
    2520 0.0039970232 4.9477398e-09    1775.7259 
    2530 0.0039970725 4.9291072e-09    1775.7457 
    2540 0.0039971218 4.9106806e-09    1775.7654 
    2550 0.0039971708 4.8924571e-09     1775.785 
    2560 0.0039972196 4.8744338e-09    1775.8046 
    2570 0.0039972683 4.8566078e-09    1775.8241 
    2580 0.0039973168 4.8389765e-09    1775.8435 
    2590 0.0039973651 4.8215372e-09    1775.8628 
    2600 0.0039974132 4.8042871e-09     1775.882 
    2610 0.0039974612 4.7872237e-09    1775.9012 
    2620  0.003997509 4.7703444e-09    1775.9203 
    2630 0.0039975566 4.7536467e-09    1775.9393 
    2640 0.0039976041 4.7371282e-09    1775.9583 
    2650 0.0039976514 4.7207865e-09    1775.9771 
    2660 0.0039976985 4.7046191e-09     1775.996 
    2670 0.0039977455 4.6886238e-09    1776.0147 
    2680 0.0039977923 4.6727982e-09    1776.0334 
    2690 0.0039978389 4.6571402e-09     1776.052 
    2700 0.0039978855 4.6416475e-09    1776.0705 
    2710 0.0039979318 4.626318e-09    1776.0889 
    2720  0.003997978 4.6111495e-09    1776.1073 
    2730  0.003998024  4.59614e-09    1776.1257 
    2740 0.0039980699 4.5812875e-09    1776.1439 
    2750 0.0039981157 4.5665899e-09    1776.1621 
    2760 0.0039981613 4.5520452e-09    1776.1803 
    2770 0.0039982067 4.5376515e-09    1776.1983 
    2780  0.003998252 4.523407e-09    1776.2163 
    2790 0.0039982972 4.5093097e-09    1776.2343 
    2800 0.0039983422 4.4953578e-09    1776.2522 
    2810 0.0039983871 4.4815495e-09      1776.27 
    2820 0.0039984319 4.467883e-09    1776.2877 
    2830 0.0039984765 4.4543566e-09    1776.3054 
    2840  0.003998521 4.4409686e-09    1776.3231 
    2850 0.0039985653 4.4277173e-09    1776.3407 
    2860 0.0039986096 4.414601e-09    1776.3582 
    2870 0.0039986536 4.4016181e-09    1776.3757 
    2880 0.0039986976 4.3887671e-09    1776.3931 
    2890 0.0039987414 4.3760463e-09    1776.4104 
    2900 0.0039987851 4.3634542e-09    1776.4277 
    2910 0.0039988287 4.3509893e-09     1776.445 
    2920 0.0039988722 4.3386501e-09    1776.4622 
    2930 0.0039989155 4.3264351e-09    1776.4793 
    2940 0.0039989587 4.3143429e-09    1776.4964 
    2950 0.0039990018 4.302372e-09    1776.5134 
    2960 0.0039990448 4.2905212e-09    1776.5304 
    2970 0.0039990876 4.2787889e-09    1776.5473 
    2980 0.0039991304 4.2671739e-09    1776.5642 
    2990  0.003999173 4.2556747e-09     1776.581 
    3000 0.0039992155 4.2442903e-09    1776.5978 
    3010 0.0039992579 4.2330191e-09    1776.6145 
    3020 0.0039993002  4.22186e-09    1776.6312 
    3030 0.0039993423 4.2108117e-09    1776.6478 
    3040 0.0039993844 4.1998731e-09    1776.6644 
    3050 0.0039994263 4.1890428e-09    1776.6809 
    3060 0.0039994682 4.1783198e-09    1776.6974 
    3070 0.0039995099 4.1677028e-09    1776.7138 
    3080 0.0039995515 4.1571907e-09    1776.7302 
    3090 0.0039995931 4.1467824e-09    1776.7465 
    3100 0.0039996345 4.1364767e-09    1776.7628 
    3110 0.0039996758 4.1262727e-09    1776.7791 
    3120  0.003999717 4.1161691e-09    1776.7953 
    3130 0.0039997581 4.106165e-09    1776.8114 
    3140 0.0039997992 4.0962592e-09    1776.8275 
    3150 0.0039998401 4.0864509e-09    1776.8436 
    3160 0.0039998809 4.0767389e-09    1776.8596 
    3170 0.0039999216 4.0671223e-09    1776.8756 
    3180 0.0039999623   4.0576e-09    1776.8916 
    3190 0.0040000028 4.0481712e-09    1776.9075 
    3200 0.0040000432 4.0388349e-09    1776.9233 
    3210 0.0040000836 4.0295901e-09    1776.9392 
    3220 0.0040001238 4.020436e-09    1776.9549 
    3230  0.004000164 4.0113716e-09    1776.9707 
    3240 0.0040002041 4.002396e-09    1776.9864 
    3250  0.004000244 3.9935084e-09     1777.002 
    3260 0.0040002839 3.9847079e-09    1777.0177 
    3270 0.0040003238 3.9759936e-09    1777.0332 
    3280 0.0040003635 3.9673647e-09    1777.0488 
    3290 0.0040004031 3.9588204e-09    1777.0643 
    3300 0.0040004427 3.9503598e-09    1777.0797 
    3310 0.0040004821 3.9419823e-09    1777.0952 
    3320 0.0040005215 3.9336868e-09    1777.1106 
    3330 0.0040005608 3.9254728e-09    1777.1259 
    3340    0.0040006 3.9173395e-09    1777.1412 
    3350 0.0040006392 3.909286e-09    1777.1565 
    3360 0.0040006782 3.9013116e-09    1777.1718 
    3370 0.0040007172 3.8934156e-09     1777.187 
    3380 0.0040007561 3.8855973e-09    1777.2022 
    3390 0.0040007949 3.877856e-09    1777.2173 
    3400 0.0040008337 3.870191e-09    1777.2324 
    3410 0.0040008723 3.8626015e-09    1777.2475 
    3420 0.0040009109 3.855087e-09    1777.2625 
    3430 0.0040009494 3.8476467e-09    1777.2775 
    3440 0.0040009879 3.8402799e-09    1777.2925 
    3450 0.0040010262 3.8329861e-09    1777.3075 
    3460 0.0040010645 3.8257646e-09    1777.3224 
    3470 0.0040011028 3.8186147e-09    1777.3373 
    3480 0.0040011409 3.8115359e-09    1777.3521 
    3490  0.004001179 3.8045275e-09    1777.3669 
    3500  0.004001217 3.7975889e-09    1777.3817 
    3510  0.004001255 3.7907195e-09    1777.3964 
    3520 0.0040012928 3.7839188e-09    1777.4112 
    3530 0.0040013307 3.7771861e-09    1777.4259 
    3540 0.0040013684 3.7705209e-09    1777.4405 
    3550 0.0040014061 3.7639227e-09    1777.4551 
    3560 0.0040014437 3.7573908e-09    1777.4697 
    3570 0.0040014812 3.7509247e-09    1777.4843 
    3580 0.0040015187 3.7445239e-09    1777.4989 
    3590 0.0040015561 3.7381879e-09    1777.5134 
    3600 0.0040015935 3.7319162e-09    1777.5279 
    3610 0.0040016308 3.7257081e-09    1777.5423 
    3620  0.004001668 3.7195633e-09    1777.5567 
    3630 0.0040017052 3.7134812e-09    1777.5711 
    3640 0.0040017423 3.7074614e-09    1777.5855 
    3650 0.0040017793 3.7015032e-09    1777.5999 
    3660 0.0040018163 3.6956064e-09    1777.6142 
    3670 0.0040018532 3.6897703e-09    1777.6285 
    3680 0.0040018901 3.6839946e-09    1777.6427 
    3690 0.0040019269 3.6782787e-09     1777.657 
    3700 0.0040019637 3.6726222e-09    1777.6712 
    3710 0.0040020004 3.6670247e-09    1777.6854 
    3720  0.004002037 3.6614858e-09    1777.6996 
    3730 0.0040020736 3.6560049e-09    1777.7137 
    3740 0.0040021102 3.6505817e-09    1777.7278 
    3750 0.0040021466 3.6452158e-09    1777.7419 
    3760 0.0040021831 3.6399067e-09     1777.756 
    3770 0.0040022194 3.6346541e-09      1777.77 
    3780 0.0040022558 3.6294575e-09     1777.784 
    3790  0.004002292 3.6243165e-09     1777.798 
    3800 0.0040023283 3.6192307e-09     1777.812 
    3810 0.0040023644 3.6141998e-09    1777.8259 
    3820 0.0040024005 3.6092234e-09    1777.8399 
    3830 0.0040024366 3.6043011e-09    1777.8538 
    3840 0.0040024726 3.5994325e-09    1777.8676 
    3850 0.0040025086 3.5946173e-09    1777.8815 
    3860 0.0040025445 3.5898551e-09    1777.8953 
    3870 0.0040025804 3.5851455e-09    1777.9092 
    3880 0.0040026162 3.5804883e-09    1777.9229 
    3890  0.004002652 3.575883e-09    1777.9367 
    3900 0.0040026878 3.5713294e-09    1777.9505 
    3910 0.0040027235 3.566827e-09    1777.9642 
    3920 0.0040027591 3.5623756e-09    1777.9779 
    3930 0.0040027947 3.5579749e-09    1777.9916 
    3940 0.0040028303 3.5536245e-09    1778.0053 
    3950 0.0040028658 3.5493241e-09    1778.0189 
    3960 0.0040029013 3.5450733e-09    1778.0325 
    3970 0.0040029367 3.540872e-09    1778.0461 
    3980 0.0040029721 3.5367198e-09    1778.0597 
    3990 0.0040030074 3.5326164e-09    1778.0733 
    4000 0.0040030427 3.5285615e-09    1778.0869 
    4010  0.004003078 3.5245548e-09    1778.1004 
    4020 0.0040031132 3.520596e-09    1778.1139 
    4030 0.0040031484 3.5166849e-09    1778.1274 
    4040 0.0040031836 3.5128212e-09    1778.1409 
    4050 0.0040032187 3.5090046e-09    1778.1543 
    4060 0.0040032538 3.5052348e-09    1778.1678 
    4070 0.0040032888 3.5015116e-09    1778.1812 
    4080 0.0040033238 3.4978347e-09    1778.1946 
    4090 0.0040033587 3.4942039e-09     1778.208 
    4100 0.0040033937 3.4906189e-09    1778.2214 
    4110 0.0040034286 3.4870795e-09    1778.2347 
    4120 0.0040034634 3.4835854e-09    1778.2481 
    4130 0.0040034982 3.4801364e-09    1778.2614 
    4140  0.004003533 3.4767323e-09    1778.2747 
    4150 0.0040035678 3.4733727e-09     1778.288 
    4160 0.0040036025 3.4700576e-09    1778.3013 
    4170 0.0040036372 3.4667866e-09    1778.3146 
    4180 0.0040036718 3.4635596e-09    1778.3278 
    4190 0.0040037065 3.4603763e-09     1778.341 
    4200  0.004003741 3.4572365e-09    1778.3542 
    4210 0.0040037756  3.45414e-09    1778.3675 
    4220 0.0040038101 3.4510866e-09    1778.3806 
    4230 0.0040038446 3.4480761e-09    1778.3938 
    4240 0.0040038791 3.4451083e-09     1778.407 
    4250 0.0040039135 3.4421829e-09    1778.4201 
    4260 0.0040039479 3.4392999e-09    1778.4332 
    4270 0.0040039823 3.436459e-09    1778.4464 
    4280 0.0040040167 3.4336599e-09    1778.4595 
    4290  0.004004051 3.4309027e-09    1778.4726 
    4300 0.0040040853 3.4281869e-09    1778.4856 
    4310 0.0040041196 3.4255126e-09    1778.4987 
    4320 0.0040041538 3.4228794e-09    1778.5118 
    4330  0.004004188 3.4202873e-09    1778.5248 
    4340 0.0040042222 3.417736e-09    1778.5378 
    4350 0.0040042564 3.4152255e-09    1778.5508 
    4360 0.0040042905 3.4127554e-09    1778.5638 
    4370 0.0040043246 3.4103257e-09    1778.5768 
    4380 0.0040043587 3.4079362e-09    1778.5898 
    4390 0.0040043928 3.4055868e-09    1778.6028 
    4400 0.0040044268 3.4032773e-09    1778.6157 
    4410 0.0040044609 3.4010075e-09    1778.6287 
    4420 0.0040044949 3.3987774e-09    1778.6416 
    4430 0.0040045288 3.3965867e-09    1778.6545 
    4440 0.0040045628 3.3944353e-09    1778.6674 
    4450 0.0040045967 3.3923231e-09    1778.6803 
    4460 0.0040046307  3.39025e-09    1778.6932 
    4470 0.0040046645 3.3882158e-09    1778.7061 
    4480 0.0040046984 3.3862204e-09     1778.719 
    4490 0.0040047323 3.3842636e-09    1778.7318 
    4500 0.0040047661 3.3823454e-09    1778.7447 
    4510 0.0040047999 3.3804656e-09    1778.7575 
    4520 0.0040048337 3.3786241e-09    1778.7704 
    4530 0.0040048675 3.3768208e-09    1778.7832 
    4540 0.0040049013 3.3750556e-09     1778.796 
    4550  0.004004935 3.3733283e-09    1778.8088 
    4560 0.0040049687 3.3716388e-09    1778.8216 
    4570 0.0040050024 3.3699871e-09    1778.8344 
    4580 0.0040050361 3.3683731e-09    1778.8472 
    4590 0.0040050698 3.3667965e-09    1778.8599 
    4600 0.0040051035 3.3652574e-09    1778.8727 
    4610 0.0040051371 3.3637557e-09    1778.8855 
    4620 0.0040051707 3.3622912e-09    1778.8982 
    4630 0.0040052044 3.3608639e-09     1778.911 
    4640  0.004005238 3.3594736e-09    1778.9237 
    4650 0.0040052715 3.3581203e-09    1778.9364 
    4660 0.0040053051 3.3568039e-09    1778.9491 
    4670 0.0040053387 3.3555243e-09    1778.9618 
    4680 0.0040053722 3.3542815e-09    1778.9745 
    4690 0.0040054058 3.3530753e-09    1778.9872 
    4700 0.0040054393 3.3519057e-09    1778.9999 
    4710 0.0040054728 3.3507726e-09    1779.0126 
    4720 0.0040055063 3.349676e-09    1779.0253 
    4730 0.0040055398 3.3486157e-09     1779.038 
    4740 0.0040055733 3.3475917e-09    1779.0506 
    4750 0.0040056068 3.346604e-09    1779.0633 
    4760 0.0040056402 3.3456525e-09    1779.0759 
    4770 0.0040056737 3.344737e-09    1779.0886 
    4780 0.0040057071 3.3438577e-09    1779.1012 
    4790 0.0040057406 3.3430144e-09    1779.1139 
    4800  0.004005774 3.342207e-09    1779.1265 
    4810 0.0040058074 3.3414355e-09    1779.1391 
    4820 0.0040058408 3.3406999e-09    1779.1518 
    4830 0.0040058742 3.3400001e-09    1779.1644 
    4840 0.0040059076 3.3393361e-09     1779.177 
    4850  0.004005941 3.3387079e-09    1779.1896 
    4860 0.0040059744 3.3381153e-09    1779.2022 
    4870 0.0040060078 3.3375584e-09    1779.2148 
    4880 0.0040060411 3.3370371e-09    1779.2274 
    4890 0.0040060745 3.3365514e-09      1779.24 
    4900 0.0040061079 3.3361013e-09    1779.2526 
    4910 0.0040061412 3.3356867e-09    1779.2652 
    4920 0.0040061746 3.3353076e-09    1779.2778 
    4930 0.0040062079 3.334964e-09    1779.2904 
    4940 0.0040062413 3.3346558e-09    1779.3029 
    4950 0.0040062746 3.3343832e-09    1779.3155 
    4960  0.004006308 3.3341459e-09    1779.3281 
    4970 0.0040063413 3.333944e-09    1779.3407 
    4980 0.0040063746 3.3337776e-09    1779.3532 
    4990  0.004006408 3.3336465e-09    1779.3658 
    5000 0.0040064413 3.3335509e-09    1779.3784 
Loop time of 6.94646 on 4 procs for 5000 steps with 32000 atoms

Performance: 0.000 ns/day, 115766.793 hours/ns, 719.791 timesteps/s
94.4% CPU use with 4 MPI tasks x 1 OpenMP threads

MPI task timing breakdown:
Section |  min time  |  avg time  |  max time  |%varavg| %total
---------------------------------------------------------------
Pair    | 2.8302     | 3.0162     | 3.3176     |  10.5 | 43.42
Neigh   | 0.14735    | 0.15831    | 0.16458    |   1.8 |  2.28
Comm    | 0.93873    | 1.1854     | 1.3192     |  14.1 | 17.06
Output  | 0.0058866  | 0.014573   | 0.03369    |   9.2 |  0.21
Modify  | 1.8242     | 1.9063     | 1.9553     |   3.7 | 27.44
Other   |            | 0.6657     |            |       |  9.58

Nlocal:    8000 ave 8033 max 7977 min
Histogram: 1 0 1 1 0 0 0 0 0 1
Nghost:    6061.25 ave 6085 max 6028 min
Histogram: 1 0 0 0 0 1 0 1 0 1
Neighs:    0 ave 0 max 0 min
Histogram: 4 0 0 0 0 0 0 0 0 0
FullNghs:  144000 ave 144590 max 143596 min
Histogram: 1 0 1 1 0 0 0 0 0 1

Total # of neighbors = 575998
Ave neighs/atom = 17.9999
Neighbor list builds = 25
Dangerous builds = 17
Total wall time: 0:00:06
